pynof
Energy PNOF4 CC-PVDZ
Number of atoms                            I                3
Charge                                     I                0
Multiplicity                               I                1
Number of electrons                        I               26
Number of alpha electrons                  I               13
Number of beta electrons                   I               13
Number of basis functions                  I               42
Number of independant functions            I               42
Number of contracted shells                I               18
Highest angular momentum                   I                2
Largest degree of contraction              I                8
Number of primitive shells                 I               66
Atomic numbers                             I   N=           3
           8           9           9
Nuclear Charges                            R   N=           3
  8.00000000e+00  9.00000000e+00  9.00000000e+00
Current cartesian coordinates              R   N=           9
  0.00000000e+00  0.00000000e+00 -1.07629291e+00  0.00000000e+00  1.97555560e+00
  4.53070004e-01  0.00000000e+00 -1.97555560e+00  4.53070004e-01
Shell types                                I   N=          18
           0           0           0           1           1          -2
           0           0           0           1           1          -2
           0           0           0           1           1          -2
Number of primitives per shell             I   N=          18
           8           8           1           3           1           1
           8           8           1           3           1           1
           8           8           1           3           1           1
Shell to atom map                          I   N=          18
           1           1           1           1           1           1
           2           2           2           2           2           2
           3           3           3           3           3           3
Coordinates of each shell                  R   N=          54
  0.00000000e+00  0.00000000e+00 -1.07629291e+00  0.00000000e+00  0.00000000e+00
 -1.07629291e+00  0.00000000e+00  0.00000000e+00 -1.07629291e+00  0.00000000e+00
  0.00000000e+00 -1.07629291e+00  0.00000000e+00  0.00000000e+00 -1.07629291e+00
  0.00000000e+00  0.00000000e+00 -1.07629291e+00  0.00000000e+00  1.97555560e+00
  4.53070004e-01  0.00000000e+00  1.97555560e+00  4.53070004e-01  0.00000000e+00
  1.97555560e+00  4.53070004e-01  0.00000000e+00  1.97555560e+00  4.53070004e-01
  0.00000000e+00  1.97555560e+00  4.53070004e-01  0.00000000e+00  1.97555560e+00
  4.53070004e-01  0.00000000e+00 -1.97555560e+00  4.53070004e-01  0.00000000e+00
 -1.97555560e+00  4.53070004e-01  0.00000000e+00 -1.97555560e+00  4.53070004e-01
  0.00000000e+00 -1.97555560e+00  4.53070004e-01  0.00000000e+00 -1.97555560e+00
  4.53070004e-01  0.00000000e+00 -1.97555560e+00  4.53070004e-01
Total Energy                               R     -2.735602352220653e+02
Primitive exponents                        R   N=          66
  1.17200000e+04  1.75900000e+03  4.00800000e+02  1.13700000e+02  3.70300000e+01
  1.32700000e+01  5.02500000e+00  1.01300000e+00  1.17200000e+04  1.75900000e+03
  4.00800000e+02  1.13700000e+02  3.70300000e+01  1.32700000e+01  5.02500000e+00
  1.01300000e+00  3.02300000e-01  1.77000000e+01  3.85400000e+00  1.04600000e+00
  2.75300000e-01  1.18500000e+00  1.47100000e+04  2.20700000e+03  5.02800000e+02
  1.42600000e+02  4.64700000e+01  1.67000000e+01  6.35600000e+00  1.31600000e+00
  1.47100000e+04  2.20700000e+03  5.02800000e+02  1.42600000e+02  4.64700000e+01
  1.67000000e+01  6.35600000e+00  1.31600000e+00  3.89700000e-01  2.26700000e+01
  4.97700000e+00  1.34700000e+00  3.47100000e-01  1.64000000e+00  1.47100000e+04
  2.20700000e+03  5.02800000e+02  1.42600000e+02  4.64700000e+01  1.67000000e+01
  6.35600000e+00  1.31600000e+00  1.47100000e+04  2.20700000e+03  5.02800000e+02
  1.42600000e+02  4.64700000e+01  1.67000000e+01  6.35600000e+00  1.31600000e+00
  3.89700000e-01  2.26700000e+01  4.97700000e+00  1.34700000e+00  3.47100000e-01
  1.64000000e+00
Contraction coefficients                   R   N=          66
  7.10000000e-04  5.47000000e-03  2.78370000e-02  1.04800000e-01  2.83062000e-01
  4.48719000e-01  2.70952000e-01  1.54580000e-02 -1.60000000e-04 -1.26300000e-03
 -6.26700000e-03 -2.57160000e-02 -7.09240000e-02 -1.65411000e-01 -1.16955000e-01
  5.57368000e-01  1.00000000e+00  4.30180000e-02  2.28913000e-01  5.08728000e-01
  1.00000000e+00  1.00000000e+00  7.21000000e-04  5.55300000e-03  2.82670000e-02
  1.06444000e-01  2.86814000e-01  4.48641000e-01  2.64761000e-01  1.53330000e-02
 -1.65000000e-04 -1.30800000e-03 -6.49500000e-03 -2.66910000e-02 -7.36900000e-02
 -1.70776000e-01 -1.12327000e-01  5.62814000e-01  1.00000000e+00  4.48780000e-02
  2.35718000e-01  5.08521000e-01  1.00000000e+00  1.00000000e+00  7.21000000e-04
  5.55300000e-03  2.82670000e-02  1.06444000e-01  2.86814000e-01  4.48641000e-01
  2.64761000e-01  1.53330000e-02 -1.65000000e-04 -1.30800000e-03 -6.49500000e-03
 -2.66910000e-02 -7.36900000e-02 -1.70776000e-01 -1.12327000e-01  5.62814000e-01
  1.00000000e+00  4.48780000e-02  2.35718000e-01  5.08521000e-01  1.00000000e+00
  1.00000000e+00
Alpha Orbital Energies                     R   N=          42
 -2.63721689e+01 -2.63521993e+01 -2.07782385e+01 -1.72977708e+00 -1.64664056e+00
 -1.02568575e+00 -8.30411838e-01 -8.37089616e-01 -9.05912449e-01 -9.08099066e-01
 -6.43894968e-01 -7.56467501e-01 -6.38864408e-01 -3.76399598e-02 -2.48010628e-02
 -7.23919361e-04 -4.68218871e-04 -1.18794272e-03 -1.32750764e-03 -4.42722272e-04
 -8.10985695e-04 -5.92723431e-04 -8.20934792e-04 -6.13756730e-04 -2.15680152e-04
 -3.19224808e-04 -1.85988590e-04 -5.97792863e-04 -4.58580264e-04 -4.91515760e-04
 -1.44624448e-04 -6.67670172e-04 -4.66762387e-04 -4.63156563e-04 -4.61002850e-04
 -4.58035294e-04 -4.51728337e-04 -2.60213763e-04 -2.63486747e-04 -1.85979285e-04
 -4.30370633e-05 -4.10765107e-05
Alpha MO coefficients                      R   N=        1764
 -4.70565748e-03  6.14885600e-05  9.32220774e-05 -2.91834914e-06 -1.08714623e-03
 -2.10369694e-05 -2.26204079e-06  1.29405511e-03  9.41734417e-07  4.44658737e-07
  5.48333139e-08 -3.53923647e-04 -3.60270911e-06 -4.95802817e-08  7.07500824e-01
 -8.86495064e-03 -1.33987073e-02  4.66607939e-06 -1.42917617e-03 -1.07918415e-03
  3.22327814e-06  3.32392052e-04  2.41929355e-04 -3.93217600e-05 -9.53189593e-08
 -2.42495092e-04  1.79914784e-04 -4.66145351e-08 -7.07437578e-01  8.87264381e-03
  1.33767534e-02  4.69999000e-06 -1.41769459e-03  1.06606307e-03  3.31603145e-06
  3.26947285e-04 -2.42646301e-04  4.02681014e-05 -1.21441558e-07 -2.46274394e-04
 -1.81623041e-04 -4.83471275e-08  5.94932107e-02 -1.60428724e-03  1.96830079e-03
  1.11380825e-08 -1.78442670e-07 -7.21648639e-04 -1.63247751e-07  3.95014151e-07
  1.00139112e-03 -5.58114493e-05 -8.86296564e-08 -2.28302497e-08  2.13961037e-04
 -2.58722043e-08  7.06340076e-01 -8.88697571e-03 -1.31939793e-02 -1.72487180e-06
 -1.25443979e-03 -1.00029276e-03 -1.17771768e-06  3.56212726e-04  2.28901728e-04
 -1.97794826e-06  8.87188817e-08 -2.92094859e-04  2.19122865e-04 -4.52648919e-08
  7.06004827e-01 -8.88350948e-03 -1.31879255e-02  1.50938469e-06  1.25398623e-03
 -9.99622520e-04  1.09180280e-06 -3.55760546e-04  2.28798906e-04 -2.00882060e-06
  8.89258061e-08  2.91801380e-04  2.19055299e-04  8.18758200e-08  9.98647885e-01
 -1.29224330e-02 -1.96964688e-02  1.43738376e-07 -5.02268256e-06  4.50592351e-03
  1.56994099e-07  6.46830720e-06 -1.79501313e-04 -9.30299489e-05  5.50182915e-08
 -1.46449042e-06  7.02464810e-04 -4.25741222e-07 -3.89842206e-02 -2.94058473e-04
  2.90247985e-03 -9.97692228e-06  1.25448984e-03  1.39010391e-03 -6.81615250e-06
 -5.40123047e-04  1.02582083e-04 -1.15422783e-04  2.71325316e-08 -3.91264745e-04
  1.88170318e-04  1.10102008e-07 -4.56316526e-02 -2.12608330e-04  3.02724710e-03
  1.03211977e-05 -1.26785494e-03  1.39962969e-03  6.79121378e-06  5.43603845e-04
  9.98156718e-05 -1.15345528e-04 -7.47825172e-08  3.89201580e-04  1.86478857e-04
  2.52209339e-07 -4.03286276e-03 -8.85967865e-02 -4.19156045e-02 -2.13791032e-06
 -2.39976861e-06 -3.75893423e-02 -4.53910142e-08 -6.53888238e-07  5.26458714e-03
 -3.56651581e-03 -4.66956487e-07 -4.31197808e-07  9.67932440e-03  5.11783788e-07
 -1.66528044e-02 -3.45635654e-01 -3.83901081e-01  6.67166000e-08 -7.87338449e-03
 -2.88471234e-02  3.08686193e-07 -6.58784112e-03 -2.12596540e-02  1.75246159e-04
 -1.04998890e-07 -3.30914456e-03  3.22381370e-03  9.64718744e-08 -1.66542516e-02
 -3.45634380e-01 -3.83900826e-01 -2.87120840e-05  7.88579145e-03 -2.88408697e-02
 -1.94951218e-05  6.59523772e-03 -2.12549557e-02  1.74923898e-04  1.44789865e-07
  3.30906896e-03  3.22352320e-03 -3.53133693e-07 -2.30674864e-06 -2.51014537e-06
 -3.53595536e-06  2.12276567e-05  5.44949492e-02  2.67635358e-06  2.58480879e-05
 -1.50871200e-03  1.68759347e-06  1.37303158e-07 -3.98992073e-06  1.63478715e-02
 -1.24323747e-07  7.52862534e-07  1.75860849e-02  3.58730197e-01  4.01651733e-01
 -1.49482198e-04  3.56197761e-02  9.62018243e-03 -1.02348078e-04  2.33262326e-02
  6.11749599e-03  5.12726026e-04  1.04206768e-06  2.51776875e-03 -1.52169252e-03
  2.04074184e-06 -1.75866678e-02 -3.58729187e-01 -4.01652151e-01 -1.85377149e-04
  3.56225620e-02 -9.61989020e-03 -1.26070821e-04  2.33281318e-02 -6.11691112e-03
 -5.12639692e-04  1.38857845e-06  2.51772529e-03  1.52160558e-03 -2.28126403e-06
  1.87984302e-02  3.41660947e-01  4.01120190e-01  3.05843045e-06 -1.94457535e-06
  1.62212951e-02 -6.74344733e-07 -6.11782850e-07  1.51426913e-02  1.71803294e-02
  1.13742026e-06 -5.72973455e-07  4.40747931e-03  2.47589835e-04 -2.76243593e-03
 -8.37193969e-02 -1.54075946e-01  6.51944792e-03 -2.66691705e-01  2.32704689e-01
  4.36760403e-03 -1.47485939e-01  1.81117206e-01 -5.68595894e-03 -7.74299150e-05
  5.29973552e-03 -9.03975213e-03 -9.67474340e-05 -2.76202743e-03 -8.37203590e-02
 -1.54076505e-01 -6.43044641e-03  2.66694050e-01  2.32702291e-01 -4.30823683e-03
  1.47487007e-01  1.81115605e-01 -5.68584282e-03  7.63203755e-05 -5.29971628e-03
 -9.03977850e-03 -9.47113024e-05  5.28164945e-07  4.35957149e-06  2.80189861e-06
  2.72602728e-01  1.00666259e-03 -1.61034971e-05  1.47479336e-01  7.69215887e-04
 -8.93207179e-06 -3.52885864e-06  2.01490493e-02 -3.82302547e-05 -1.14885465e-06
  3.19859430e-07 -5.00332101e-06 -2.24771988e-04 -5.59321851e-04  4.20181742e-01
  3.54616501e-03 -4.85697370e-03  2.70633324e-01  2.53359086e-03 -3.11897317e-03
  1.04508591e-04 -6.78370169e-03  4.06377325e-05  4.47025142e-05 -1.02322527e-02
  4.94503265e-06  2.11373775e-04  5.46775361e-04  4.20160562e-01  3.47318117e-03
  4.76076139e-03  2.70619334e-01  2.48709251e-03  3.05264067e-03 -1.02003488e-04
 -6.78348894e-03  3.96422706e-05 -4.29452975e-05  1.02319483e-02 -1.01524276e-07
 -2.85133969e-06 -1.48402496e-06  1.76376700e-03  3.98926114e-01 -2.80004631e-06
  1.15951792e-03  1.57747806e-01 -1.46106169e-06  1.13196087e-07  3.37141604e-05
  4.94236932e-02  6.26376626e-07  1.00861824e-07 -2.35797470e-03 -1.21686432e-02
 -5.35842402e-02 -4.59777144e-04 -3.52758344e-01 -1.55593664e-01 -3.95662883e-04
 -2.38826863e-01 -8.83576038e-02  2.24289292e-03 -1.41088691e-05  1.84714813e-02
 -1.12296848e-02 -1.73571820e-05  2.35744476e-03  1.21625311e-02  5.35805086e-02
 -4.67288146e-04 -3.52756360e-01  1.55605694e-01 -4.01390466e-04 -2.38824984e-01
  8.83652589e-02 -2.24318694e-03 -1.41266362e-05  1.84722039e-02  1.12293787e-02
  1.71774517e-05  1.87898081e-02  2.62228242e-01  2.76013783e-01 -1.20549902e-05
  1.16514664e-05 -1.02298885e-01 -4.61930063e-06  8.73929793e-06 -6.07201123e-02
 -1.28998487e-02 -1.49880251e-06 -4.53764090e-07 -8.52243998e-03  1.31424044e-02
 -1.37417773e-03 -3.23747616e-02 -5.67946643e-02  3.44574784e-01  9.98735561e-02
 -1.95963598e-01  2.30899979e-01  7.82893610e-02 -1.22046448e-01  5.60769347e-03
 -4.11957371e-03  6.37522312e-03  5.66306280e-04 -5.01813810e-03 -1.37292885e-03
 -3.23533715e-02 -5.67626901e-02 -3.44657141e-01 -9.98085615e-02 -1.95865401e-01
 -2.30955177e-01 -7.82433323e-02 -1.21983572e-01  5.60569611e-03  4.12076248e-03
 -6.37426544e-03  5.65498009e-04 -5.02001846e-03 -1.88710713e-02 -2.65235985e-01
 -2.80063628e-01 -1.12313829e-05  1.07949944e-06  1.01100418e-01 -9.36575665e-06
  3.83046993e-06  5.99051744e-02  1.24298437e-02  5.11725528e-07 -1.01710670e-06
  8.31295966e-03  1.33138013e-02  1.41181271e-03  3.35001052e-02  5.88500792e-02
  3.49112503e-01 -9.37435284e-02  1.88835154e-01  2.33941473e-01 -7.45897351e-02
  1.16915714e-01 -5.43125425e-03 -4.17451607e-03 -6.38130196e-03 -4.02298026e-04
 -5.08574796e-03  1.41210452e-03  3.35264329e-02  5.88821540e-02 -3.49049059e-01
  9.37955892e-02  1.88896712e-01 -2.33897561e-01  7.46270824e-02  1.16955804e-01
 -5.43228771e-03  4.17382442e-03  6.38132805e-03 -4.02816365e-04 -5.08485668e-03
 -8.44899668e-09  5.81412880e-06  1.44251597e-05  4.64609155e-01 -7.06854998e-02
 -2.69012364e-05  3.11443023e-01 -5.12064651e-02 -1.66469267e-05 -3.73872888e-07
  7.45758216e-03  1.33321244e-03  1.68373188e-06  1.95747464e-06  3.98818040e-04
  1.97797787e-02  4.18845832e-02 -1.75165931e-01 -1.97168345e-01  2.85645485e-01
 -1.40389457e-01 -1.41268157e-01  1.82426114e-01 -6.19884247e-03 -3.29484338e-03
 -2.81607638e-03 -2.34381100e-03 -3.72742176e-03 -3.98768792e-04 -1.97826604e-02
 -4.18825134e-02 -1.75276927e-01 -1.97178648e-01 -2.85602474e-01 -1.40464290e-01
 -1.41271410e-01 -1.82394973e-01  6.19878104e-03 -3.29361241e-03 -2.81457195e-03
  2.34477669e-03  3.72560003e-03  2.71880469e-03  3.96454885e-02  1.89156584e-01
 -2.84271919e-05  5.91879402e-07 -4.81929377e-01 -1.84931758e-05  1.04050077e-06
 -2.77877929e-01 -1.52960414e-02 -5.35757104e-07 -5.45846622e-07  2.46802770e-02
  1.13927415e-05 -2.30200087e-03  2.21691324e-03  6.35170669e-02  3.01263932e-04
  1.96184272e-01  2.83117164e-01  1.98407231e-04  1.05383901e-01  1.97661368e-01
  2.27325672e-03 -3.14364904e-06 -1.40101123e-02  1.15895654e-02 -3.64862792e-06
 -2.30203073e-03  2.21684965e-03  6.35162104e-02 -2.78493415e-04 -1.96156997e-01
  2.83144816e-01 -1.81272570e-04 -1.05365085e-01  1.97679582e-01  2.27243335e-03
  3.59507504e-06  1.40101035e-02  1.15893763e-02 -3.83461182e-06 -6.19517047e-07
 -8.65534815e-06 -8.40917297e-06  4.69359628e-01  6.78844756e-02  5.78832257e-06
  3.15222844e-01  4.96184259e-02  3.04713784e-06  1.20297345e-06  7.26153681e-03
 -1.48498527e-03  4.95856197e-07 -1.55897340e-06 -3.78849023e-04 -1.94163044e-02
 -4.09382039e-02 -1.86157112e-01  1.94445253e-01 -2.79359247e-01 -1.48015157e-01
  1.39259326e-01 -1.78426612e-01  6.06681865e-03 -3.24173541e-03  2.69297537e-03
  2.33795111e-03 -3.62204594e-03  3.79080661e-04  1.94267696e-02  4.09506569e-02
 -1.86068896e-01  1.94470865e-01  2.79400504e-01 -1.47956010e-01  1.39276918e-01
  1.78455023e-01 -6.06752973e-03 -3.24283487e-03  2.69438203e-03 -2.33863888e-03
  3.62353345e-03  1.89552502e-02  2.32151849e-01  4.49692216e-01  3.56921086e-06
 -4.32837462e-06  5.92965325e-01 -3.28747848e-06 -3.34852032e-06  3.84340743e-01
  2.62463263e-03  2.45168730e-06 -1.55859395e-07  3.94870264e-02  4.49776113e-05
 -1.30363859e-04 -8.81758311e-02 -2.47173106e-01 -6.44058683e-05  4.03323413e-01
  1.86967926e-01  5.48149028e-05  2.51888175e-01  1.40371010e-01 -1.01062154e-02
 -6.05830640e-05  9.90936720e-03 -1.22734650e-02  3.64802098e-05 -1.29080882e-04
 -8.81735218e-02 -2.47180089e-01  6.23056229e-05 -4.03328490e-01  1.86971247e-01
 -5.30725026e-05 -2.51888489e-01  1.40373377e-01 -1.01059555e-02  5.90702061e-05
 -9.91026036e-03 -1.22723752e-02  3.71495127e-05  3.95727390e-01  9.78159132e-01
 -1.06253066e+00  1.88315404e-03  3.42051083e-03 -4.33618233e-01 -2.67271445e-03
 -2.61551233e-03  5.95351213e-01 -1.45942495e-01  6.53919944e-04  4.08977789e-03
  1.91737561e-01  2.27826704e-02  1.40116268e-01  3.74981006e-01 -2.98482807e-01
 -2.20240521e-02 -5.47512717e-02  2.37005094e-01  2.38736144e-02  2.61428802e-02
 -3.97029003e-01 -2.87686904e-02 -5.32173360e-03 -6.03250537e-02  3.96239669e-02
 -6.35866538e-03  1.40928257e-01  3.77402705e-01 -3.01223799e-01  2.13872203e-02
  5.79942778e-02  2.44800911e-01 -2.20844606e-02 -2.77740150e-02 -4.07153653e-01
 -2.72727193e-02  5.43608656e-03  6.49606564e-02  4.24307414e-02 -6.59502506e-03
  4.37619059e-04  1.12308868e-03 -1.08835637e-03  7.62999097e-01 -1.52715398e-03
 -3.41182790e-03 -7.95047231e-01  7.61706274e-05  2.02380557e-03  2.50641987e-03
 -2.35974660e-01 -7.90559838e-04  1.51717832e-03  1.66352274e-04 -5.62358353e-04
 -1.36342280e-03  1.03172026e-03  3.47210802e-01  6.38193939e-04 -2.07340765e-03
 -1.99670817e-01 -2.39901062e-04  5.82452831e-04 -7.83769702e-04  6.85757468e-02
 -1.34170184e-03 -1.00059367e-04  1.01573093e-01 -2.77468110e-04 -7.22578508e-04
  3.40186090e-04  3.47616621e-01 -5.65792776e-03 -6.87443572e-03 -2.00112188e-01
  5.77577101e-03  7.42282880e-03 -1.30293236e-03  6.86410794e-02  4.77541237e-04
 -8.41550612e-04 -1.01678884e-01 -1.27262394e-01 -2.92796208e-01  1.42988703e-01
  3.72200503e-03 -2.30297071e-03  2.29091547e-01 -7.41398562e-03  5.35702188e-03
 -3.92706486e-01  1.49743087e-01  1.31911975e-04 -2.95146242e-03 -1.44648831e-01
 -1.88090211e-02  2.99776754e-01  7.40453431e-01 -6.73478843e-01 -1.36791671e-02
  3.56664680e-01  1.30584741e-01  2.01174522e-02 -4.65924892e-01 -1.27926402e-01
  6.49317725e-02  1.14099461e-02 -3.89518295e-02 -2.56695816e-02  8.18948052e-03
  3.07918944e-01  7.60639522e-01 -6.90266736e-01  4.47936568e-03 -3.61096214e-01
  1.39610853e-01 -6.36705518e-03  4.70236619e-01 -1.41108403e-01  6.10429890e-02
 -7.39447314e-03  4.00110164e-02 -3.18250464e-02  6.91508903e-03 -1.86415759e-03
 -4.43818621e-03  5.63607695e-03  4.71865079e-01 -1.82598955e-03 -5.83616128e-04
 -8.24130959e-01  2.23132360e-02  1.95183720e-03 -3.28710888e-03  6.07363610e-01
 -4.96803989e-02  4.12321000e-03  1.51148057e-03  2.45281287e-02  6.45220605e-02
 -5.95495550e-02 -3.24759328e-01  5.88337907e-02 -2.29565629e-02  4.97461487e-01
 -8.74267484e-02  2.86780160e-02  1.62681815e-02 -3.34808594e-04 -2.65299082e-02
  2.81304950e-02 -8.17868832e-02 -2.86789286e-02 -7.48878997e-02  6.74639000e-02
 -3.24158122e-01  6.18128671e-02  2.12794869e-02  4.97129479e-01 -9.17644506e-02
 -2.66951235e-02 -1.69281949e-02  6.07681748e-04 -2.41821683e-02 -2.58441881e-02
  8.06331882e-02 -5.52807334e-04 -1.36719592e-03  2.27068539e-03  6.64000373e-02
 -2.63305864e-02 -1.61209147e-04 -1.14960063e-01 -8.70323773e-02  5.63298074e-04
 -4.42324298e-03  9.99609699e-02  2.63253905e-01  1.81756964e-03  2.51481687e-03
 -2.08916448e-01 -5.40800771e-01  4.86157773e-01 -4.27019311e-02 -4.33193185e-01
  1.33838965e-01  6.47440226e-02  6.18837126e-01 -1.62335339e-01 -8.91799483e-02
 -5.85065241e-03  1.34995601e-01 -1.47381648e-01 -1.58545662e-02  2.06201264e-01
  5.34023924e-01 -4.80346963e-01 -4.28191403e-02 -4.31620632e-01 -1.37249819e-01
  6.55256478e-02  6.17088753e-01  1.66830211e-01  9.17399721e-02 -4.03470071e-03
  1.34786572e-01  1.50098323e-01  1.39109140e-02  7.05141796e-03 -1.02499016e-02
 -5.78013358e-01  9.16619336e-05  6.05930363e-04 -2.14349010e-01 -1.00895792e-04
 -2.32620079e-04  1.23577207e-02  1.38621455e-01  2.94532135e-04 -9.05881179e-04
 -4.11891491e-01  1.89249172e-03 -2.01360019e-01 -4.80981492e-01  5.68932719e-01
  1.28922732e-03  2.56079277e-01  2.33695094e-01 -1.87929592e-03 -3.80079221e-01
 -3.65152321e-01 -9.60058694e-02 -2.62480181e-02  1.69620561e-02  4.32021054e-01
  2.35245165e-02 -2.01625826e-01 -4.81622533e-01  5.69461295e-01 -1.31128615e-03
 -2.57416973e-01  2.34574431e-01  1.90594601e-03  3.81745481e-01 -3.66079344e-01
 -9.45855658e-02  2.52673203e-02 -1.64240441e-02  4.30934624e-01  2.25219463e-02
 -1.45449221e-01 -3.36491658e-01  3.75209782e-01  1.46764297e-04  4.79987386e-04
 -1.42112585e-02 -8.18223562e-05 -2.38112245e-03  1.45120944e-01  5.66286988e-01
  1.20631427e-03  2.17437562e-03  1.46017968e-01  3.16843278e-02 -1.86557214e-02
 -5.11404586e-02 -3.43394076e-02  1.68008058e-02 -1.09155655e-01  2.39235588e-01
 -2.41905267e-02  2.19308851e-01 -3.15592205e-01 -3.76688495e-01 -1.35804599e-02
 -1.53967334e-01 -1.66265660e-01 -1.79152446e-02 -1.99131020e-02 -5.40237224e-02
 -3.21466760e-02 -1.62477283e-02  1.05423314e-01  2.33124547e-01  2.33753805e-02
 -2.13478056e-01 -3.07215780e-01 -3.75727790e-01  1.31158977e-02  1.53568669e-01
 -1.60936549e-01 -1.71689283e-02  9.66892453e-04  2.27788037e-03 -3.72354477e-04
  1.10530448e-01  7.93669961e-06 -1.38376697e-03 -3.56566367e-01 -9.19808739e-03
  2.77682234e-03  5.75600585e-04 -5.75865410e-01  9.33517880e-03 -2.21251199e-04
  1.69053935e-03  1.55537326e-03  3.39663625e-03 -2.63117590e-03 -4.21010400e-01
 -9.05665792e-03  1.36981122e-02  6.11762794e-01  1.39926921e-02 -1.86802374e-02
 -5.12698990e-03  1.96428020e-01  4.38647680e-03 -6.48236480e-03  2.44637589e-01
 -4.59260204e-03 -1.10528671e-02  8.81183032e-03 -4.22803337e-01 -4.00698521e-03
 -1.56887101e-02  6.14337916e-01  6.63066825e-03  2.12041797e-02  2.51124195e-03
  1.98780645e-01  1.19832779e-03  6.53723421e-03 -2.45462443e-01 -2.87353101e-01
 -6.75430808e-01  6.16220904e-01 -2.88646694e-03  1.07808774e-04  2.36100555e-02
  4.64462940e-03 -1.19566668e-03  2.41862874e-02 -4.15630984e-01 -5.60122923e-03
  3.05601436e-05  5.66453536e-01  1.41321101e-03 -3.06255459e-02 -7.02042979e-02
  7.56659515e-03  6.75094891e-04  8.34121219e-02  7.39390595e-02 -1.43448836e-03
 -1.22373084e-01 -1.12761913e-01 -3.50751070e-03  1.86464093e-03 -2.57816321e-01
  1.61754569e-01 -6.38641217e-04 -3.39244445e-02 -7.85115765e-02  1.46783128e-02
  1.61272705e-03 -8.13251754e-02  6.99925622e-02 -2.21216296e-03  1.19570498e-01
 -1.07123935e-01 -2.88485976e-03 -6.69871484e-04  2.57209708e-01  1.62107338e-01
 -2.79538804e-03 -5.97902487e-04 -1.40939645e-03  1.05211520e-03  3.70031463e-02
 -2.24490627e-02 -5.15042020e-04 -8.40174986e-02  2.58594786e-02  5.96307772e-04
 -2.58107508e-04  2.61252365e-02  1.47849080e-02 -6.45068688e-04 -7.94793551e-04
  7.71750188e-03  1.74062358e-02 -2.90349661e-02 -4.13132051e-02  3.22632524e-04
  1.06445451e-02  6.72778172e-02  5.79861664e-03 -6.40945667e-03  4.31380097e-02
 -5.73423870e-01  3.44356524e-02  1.51244476e-02  3.96831871e-01 -7.60633593e-03
 -1.72171375e-02  2.80990509e-02 -3.93393364e-02 -9.69934979e-04 -9.55893426e-03
  6.46646576e-02  6.88181242e-03  5.29899205e-03 -4.16885957e-02 -5.82690093e-01
  3.58845652e-02 -1.81129306e-02 -4.01633643e-01 -1.02364143e-01 -2.17861953e-01
  6.14846885e-01 -4.45674036e-04  6.41780677e-04  5.49836328e-02  1.23403941e-03
 -1.25551641e-03  1.18789563e-01 -8.93832412e-02  1.52783957e-03 -1.55570708e-04
  1.94690292e-01  1.02784932e-03  1.59829432e-01  3.75447857e-01 -5.11352813e-01
  1.94426277e-03 -6.32616373e-02 -1.21763718e-01 -2.77276567e-03  1.73085252e-01
  2.22169055e-01 -3.67591231e-01  6.49429505e-03  4.26611286e-01  2.77402378e-01
 -8.06985655e-03  1.60601849e-01  3.77156228e-01 -5.14254643e-01 -1.49436477e-04
  6.43492298e-02 -1.21456473e-01 -6.81904789e-05 -1.75110450e-01  2.22452763e-01
 -3.65546432e-01 -9.05759674e-03 -4.30079031e-01  2.79286786e-01 -1.05541105e-02
 -8.80081623e-03 -2.08484509e-02  2.34584807e-02  3.64455092e-05  7.86351025e-04
 -1.36584254e-02 -1.33886805e-04 -2.40472657e-03  2.24077810e-02  4.33757728e-03
 -3.07277940e-04  1.37388706e-03  6.76747659e-03  6.94073715e-01 -4.37887816e-04
 -1.62984202e-03 -6.64504513e-03  1.07142153e-01  3.55381346e-03  4.55988540e-03
 -2.02061005e-01  1.90807459e-03 -6.35103191e-03  6.34028976e-03  3.65844791e-01
  9.92371885e-03 -5.30579656e-03  4.32653539e-01  6.45194631e-04  8.93620399e-04
 -1.08252635e-02 -1.07149991e-01 -2.53771655e-03  3.61055166e-03  2.02174923e-01
 -3.46969068e-03 -4.16024562e-03  6.02018704e-03 -3.65660146e-01 -1.17839123e-02
 -7.16578180e-03  4.33651266e-01  8.47918146e-07  3.52624836e-06  7.36610122e-07
  3.13189512e-04  6.95561841e-01  3.65324664e-06 -2.79009061e-04  4.61101284e-01
  2.27021484e-06 -3.60347399e-07 -5.21941222e-05 -3.62544610e-02  4.89014408e-08
 -7.26299275e-07 -2.11331540e-03 -9.17755942e-02 -2.41438207e-01  2.08853787e-04
  2.47503979e-01  3.20893906e-01 -1.25906878e-04  1.69812296e-01  1.73985746e-01
  1.44726465e-02 -3.76414012e-05  1.91687659e-02 -4.23124922e-04  7.69705884e-05
  2.11262429e-03  9.17728839e-02  2.41437563e-01  2.06506934e-04  2.47501565e-01
 -3.20891821e-01 -1.23332137e-04  1.69806905e-01 -1.73983816e-01 -1.44729635e-02
 -3.72241443e-05  1.91682444e-02  4.21747709e-04 -7.62094239e-05  6.08931922e-04
  1.52033450e-03 -3.82607874e-03  4.32040002e-03  1.03881046e-01  2.49123400e-03
 -4.01732553e-03 -3.56706608e-01 -5.49773976e-03  5.71443119e-04  2.48253771e-02
  3.03027537e-01 -5.25077906e-03 -1.60673157e-03  2.57681823e-01  6.31170925e-01
 -5.39419465e-01  4.14665584e-03  6.05605102e-02  4.01545008e-01 -5.88646097e-03
 -6.24884789e-03 -5.57867123e-01 -1.52422788e-01 -2.77413717e-03  7.95132895e-02
 -1.91678234e-01 -8.18030305e-03 -2.49030667e-01 -6.09742488e-01  5.21392289e-01
  5.43439178e-03  5.02452246e-02 -4.00410913e-01 -7.83706117e-03  7.95388848e-03
  5.57513685e-01  1.58326194e-01 -4.71055407e-03  7.67977453e-02  1.91709235e-01
  9.28016017e-03 -8.89335918e-02 -2.24911111e-01  2.34521722e-01  7.50831428e-03
  1.71269744e-04  4.03752651e-01 -7.85109731e-03 -1.53026526e-04 -2.81465162e-01
 -2.35722445e-01 -2.23857802e-03  1.35463878e-04 -1.76625449e-01 -2.47133624e-03
  2.08334079e-02  4.86724934e-02 -1.98672254e-02  9.30193597e-03 -3.23591806e-01
  4.24025914e-01 -8.66091525e-03  3.13662465e-01 -3.55876291e-01  1.08191976e-01
  1.32346033e-03  9.88776171e-02  4.13656738e-02  1.75726147e-03  2.08080045e-02
  4.86185701e-02 -1.98767612e-02 -2.54936195e-03  3.23794748e-01  4.24373025e-01
  4.82031139e-03 -3.13841053e-01 -3.56294890e-01  1.08206530e-01  1.85907908e-05
 -9.87507527e-02  4.14751093e-02 -1.89987056e-04 -1.70422532e-02 -4.23130340e-02
  4.53220986e-02 -1.19237587e-03 -1.57943890e-03  2.33851228e-02  1.94483187e-03
  1.30182657e-03 -3.10345488e-02  1.24044206e-03 -8.99975911e-04 -2.27161609e-03
 -1.22230870e-02  4.94142926e-01 -3.88739329e-03 -1.07164330e-02  8.68878156e-03
 -5.22592969e-01  1.06104813e-03 -5.88050892e-03  5.59682532e-01 -1.67351809e-03
  1.34926676e-02  4.57733450e-03 -1.31808954e-01  3.54154226e-03 -3.95903448e-04
 -1.28537511e-01 -4.80983521e-03 -1.32552769e-02  1.12138533e-02  5.23822833e-01
 -1.58301121e-03 -9.32584601e-03 -5.61782767e-01  9.82906209e-04  1.80163122e-02
  3.71688338e-03  1.31781774e-01 -6.06501210e-03 -2.01398161e-03 -1.28559133e-01
 -4.64165653e-03 -1.13948592e-02  1.20768974e-02  1.07703564e-02  3.58321460e-01
  4.27681890e-03 -1.75057020e-02 -3.03655383e-01 -5.81494823e-03  1.69692195e-03
  3.16983024e-03  4.09657459e-01 -8.88620390e-04  1.86402323e-03 -2.01611108e-03
 -2.27939956e-02  5.97395054e-02 -7.99803419e-03  2.15914031e-01 -3.70336120e-01
  1.26114769e-02 -1.53519123e-01  4.71856966e-01 -7.45578964e-02 -5.98108424e-04
  2.25942052e-01 -1.37371497e-01  1.05922639e-03 -9.42694015e-04  1.49077004e-02
 -5.37719680e-02 -3.06025916e-03  2.14298990e-01  3.65991986e-01  7.19989089e-03
 -1.52571698e-01 -4.64634849e-01  7.42003005e-02  1.81927001e-04  2.25885018e-01
  1.36578498e-01 -2.02898719e-03  2.82874280e-01  6.80605324e-01 -6.23766921e-01
 -3.44146143e-04 -7.11780800e-05  4.83170397e-01  9.00645800e-04 -6.35158141e-04
 -5.98645294e-01  3.72250587e-01  1.26761650e-03  7.60977037e-04  1.59379172e-01
  1.31042115e-02  3.06999986e-02  9.76243477e-02  1.64456710e-01  2.17710954e-03
 -1.95151987e-01 -1.54503049e-01 -4.31708672e-03  8.59898866e-02  1.39279292e-01
  9.72831162e-02  3.02895244e-03 -2.49748422e-01  3.83022551e-01  1.21191485e-02
  3.15413859e-02  9.96092868e-02  1.61921445e-01 -1.95193188e-03  1.96287131e-01
 -1.55130313e-01  3.47304954e-03 -8.76696486e-02  1.40335851e-01  9.78740691e-02
 -3.22946510e-03  2.48466483e-01  3.83008130e-01  8.10199816e-03  4.15948435e-04
  9.25721196e-04 -8.72510557e-04 -2.62786065e-03 -2.39514623e-01  8.65099965e-04
  7.22011910e-03  7.98216980e-01 -1.30930827e-03  1.87557353e-04  8.08455714e-03
 -5.58428113e-01  8.95293951e-04  1.98783012e-03  1.97738300e-01  4.66510012e-01
 -7.30623622e-01  2.30230443e-03 -1.82928372e-01 -1.93434572e-01 -5.11122536e-03
  2.62105475e-01  3.99751708e-01 -1.28649980e-01  8.89233346e-03  3.33563201e-01
 -3.06619986e-01  7.83542644e-03 -1.97441082e-01 -4.65647286e-01  7.30889102e-01
  1.65386317e-03 -1.82029214e-01  1.92489603e-01 -3.91135504e-03  2.61816927e-01
 -3.98850852e-01  1.28443021e-01  6.42026566e-03  3.33278274e-01  3.07216254e-01
 -5.99261005e-03  3.35744023e-03  7.80651581e-03 -1.38832030e-02 -9.02534166e-04
 -5.30482690e-04  6.70216987e-03  1.95296571e-03  4.63706622e-04 -1.85502743e-02
 -2.38555182e-02  5.96126899e-04  5.61388280e-04 -1.28770869e-02  5.63185211e-01
  1.03656042e-02  2.57687463e-02 -1.99219252e-02  3.78149505e-01  1.88379411e-02
 -9.28993677e-03 -5.23606339e-01 -2.76392695e-02  1.34322673e-02  2.27051438e-02
 -2.47418500e-01  7.01047404e-03  7.19783037e-03 -3.00206361e-01  8.42256811e-03
  2.09322252e-02 -1.50066974e-02 -3.75245666e-01 -1.55821052e-02 -1.03163698e-02
  5.19334498e-01  2.37084574e-02  1.44714017e-02  2.28421888e-02  2.44093533e-01
 -4.23882555e-03  4.37312309e-03 -3.00939465e-01  6.19928317e-04  1.44060479e-03
 -1.21474070e-03 -4.96469864e-03  7.04160618e-01  1.20635232e-03  1.20857727e-02
 -6.93570082e-01 -1.97020477e-03 -8.95120768e-04  1.20765458e-02 -1.31615123e-01
  1.03492605e-05  1.99376699e-04  2.02456732e-01  4.84061133e-01 -3.26552974e-01
  3.17865994e-03 -4.02862724e-01 -1.32639095e-01 -7.29334576e-03  5.91804595e-01
  4.11646427e-02  9.84159017e-02  6.69093946e-03 -8.54229474e-02  2.50556169e-01
  1.32969988e-02 -2.01733758e-01 -4.82179725e-01  3.26080999e-01  2.77741892e-03
 -4.02185219e-01  1.31323113e-01 -6.75650723e-03  5.92031384e-01 -3.93742907e-02
 -9.97418011e-02  8.04366220e-03 -8.46723801e-02 -2.51117155e-01 -1.27156947e-02